<?xml version="1.0"?>
<VTKFile type="UnstructuredGrid" version="0.1" byte_order="LittleEndian">
  <UnstructuredGrid>
    <Piece NumberOfPoints="3570" NumberOfCells="7000">
      <CellData Scalars="scalars">
        <DataArray type="Float64" Name="color" NumberOfComponents="1" Format="ascii">
17.4788 17.4788 17.4788 17.4788 17.4788 17.4788 17.4788 17.4788 17.4788 17.4788 17.4788 17.4788 17.4788 17.4788 17.4788 17.4788 17.4788 17.4788 17.4788 17.4788 17.4788 17.4788 17.4788 17.4788 17.4788 17.4788 17.4788 17.4788 17.4788 17.4788 17.4788 17.4788 17.4788 17.4788 17.4788 17.4788 17.4788 17.4788 17.4788 17.4788 17.4788 17.4788 17.4788 17.4788 17.4788 17.4788 17.4788 17.4788 17.4788 17.4788 17.4788 17.4788 17.4788 17.4788 17.4788 17.4788 17.4788 17.4788 17.4788 17.4788 17.4788 17.4788 17.4788 17.4788 17.4788 17.4788 17.4788 17.4788 17.4788 17.4788 17.4788 17.4788 17.4788 17.4788 17.4788 17.4788 17.4788 17.4788 17.4788 17.4788 17.4788 17.4788 17.4788 17.4788 17.4788 17.4788 17.4788 17.4788 17.4788 17.4788 17.4788 17.4788 17.4788 17.4788 17.4788 17.4788 17.4788 17.4788 17.4788 17.4788 17.4788 17.4788 17.4788 17.4788 17.4788 17.4788 17.4788 17.4788 17.4788 17.4788 17.4788 17.4788 17.4788 17.4788 17.4788 17.4788 17.4788 17.4788 17.4788 17.4788 17.4788 17.4788 17.4788 17.4788 17.4788 17.4788 17.4788 17.4788 17.4788 17.4788 17.4788 17.4788 17.4788 17.4788 17.4788 17.4788 17.4788 17.4788 17.4788 17.4788 17.4788 17.4788 17.4788 17.4788 17.4788 17.4788 17.4788 17.4788 17.4788 17.4788 17.4788 17.4788 17.4788 17.4788 17.4788 17.4788 17.4788 17.4788 17.4788 17.4788 17.4788 17.4788 17.4788 17.4788 17.4788 17.4788 17.4788 17.4788 17.4788 17.4788 17.4788 17.4788 17.4788 17.4788 17.4788 17.4788 17.4788 17.4788 17.4788 17.4788 17.4788 17.4788 17.4788 17.4788 17.4788 17.4788 17.4788 17.4788 17.4788 17.4788 17.4788 17.4788 17.4788 17.4788 17.4788 17.4788 17.4788 17.4788 17.4788 17.4788 17.4788 17.4788 17.4788 17.4788 17.4788 17.4788 17.4788 17.4788 17.4788 17.4788 17.4788 17.4788 17.4788 17.4788 17.4788 17.4788 17.4788 17.4788 17.4788 17.4788 17.4788 17.4788 17.4788 17.4788 17.4788 17.4788 17.4788 17.4788 17.4788 17.4788 17.4788 17.4788 17.4788 17.4788 17.4788 17.4788 17.4788 17.4788 17.4788 17.4788 17.4788 17.4788 17.4788 17.4788 17.4788 17.4788 17.4788 17.4788 17.4788 17.4788 17.4788 17.4788 17.4788 17.4788 17.4788 17.4788 17.4788 17.4788 17.4788 17.4788 17.4788 17.4788 17.4788 17.4788 17.4788 17.4788 17.4788 17.4788 17.4788 17.4788 17.4788 17.4788 17.4788 17.4788 17.4788 17.4788 17.4788 17.4788 17.4788 17.4788 17.4788 17.4788 17.4788 17.4788 17.4788 17.4788 17.4788 17.4788 17.4788 17.4788 17.4788 17.4788 17.4788 17.4788 17.4788 17.4788 17.4788 17.4788 17.4788 17.4788 17.4788 17.4788 17.4788 17.4788 17.4788 17.4788 17.4788 17.4788 17.4788 17.4788 17.4788 17.4788 17.4788 17.4788 17.4788 17.4788 17.4788 17.4788 17.4788 17.4788 17.4788 17.4788 17.4788 17.4788 17.4788 17.4788 17.4788 17.4788 17.4788 17.4788 17.4788 17.4788 17.4788 17.4788 17.4788 17.4788 17.4788 17.4788 17.4788 17.4788 17.4788 17.4788 17.4788 17.4788 17.4788 17.4788 17.4788 17.4788 17.4788 17.4788 17.4788 17.4788 17.4788 17.4788 17.4788 17.4788 17.4788 17.4788 17.4788 17.4788 17.4788 17.4788 17.4788 17.4788 17.4788 17.4788 17.4788 17.4788 17.4788 17.4788 17.4788 17.4788 17.4788 17.4788 17.4788 17.4788 17.4788 17.4788 17.4788 17.4788 17.4788 17.4788 17.4788 17.4788 17.4788 17.4788 17.4788 17.4788 17.4788 17.4788 17.4788 17.4788 17.4788 17.4788 17.4788 17.4788 17.4788 17.4788 17.4788 17.4788 17.4788 17.4788 17.4788 17.4788 17.4788 17.4788 17.4788 17.4788 17.4788 17.4788 17.4788 17.4788 17.4788 17.4788 17.4788 17.4788 17.4788 17.4788 17.4788 17.4788 17.4788 17.4788 17.4788 17.4788 17.4788 17.4788 17.4788 17.4788 17.4788 17.4788 17.4788 17.4788 17.4788 17.4788 17.4788 17.4788 17.4788 17.4788 17.4788 17.4788 17.4788 17.4788 17.4788 17.4788 17.4788 17.4788 17.4788 17.4788 17.4788 17.4788 17.4788 17.4788 17.4788 17.4788 17.4788 17.4788 17.4788 17.4788 17.4788 17.4788 17.4788 17.4788 17.4788 17.4788 17.4788 17.4788 17.4788 17.4788 17.4788 17.4788 17.4788 17.4788 17.4788 17.4788 17.4788 17.4788 17.4788 17.4788 17.4788 17.4788 17.4788 17.4788 17.4788 17.4788 17.4788 17.4788 17.4788 17.4788 17.4788 17.4788 17.4788 17.4788 17.4788 17.4788 17.4788 17.4788 17.4788 17.4788 17.4788 17.4788 17.4788 17.4788 17.4788 17.4788 17.4788 17.4788 17.4788 17.4788 17.4788 17.4788 17.4788 17.4788 17.4788 17.4788 17.4788 17.4788 17.4788 17.4788 17.4788 17.4788 17.4788 17.4788 17.4788 17.4788 17.4788 17.4788 17.4788 17.4788 17.4788 17.4788 17.4788 17.4788 17.4788 17.4788 17.4788 17.4788 17.4788 17.4788 17.4788 17.4788 17.4788 17.4788 17.4788 17.4788 17.4788 17.4788 17.4788 17.4788 17.4788 17.4788 17.4788 17.4788 17.4788 17.4788 17.4788 17.4788 17.4788 17.4788 17.4788 17.4788 17.4788 17.4788 17.4788 17.4788 17.4788 17.4788 17.4788 17.4788 17.4788 17.4788 17.4788 17.4788 17.4788 17.4788 17.4788 17.4788 17.4788 17.4788 17.4788 17.4788 17.4788 17.4788 17.4788 17.4788 17.4788 17.4788 17.4788 17.4788 17.4788 17.4788 17.4788 17.4788 17.4788 17.4788 17.4788 17.4788 17.4788 17.4788 17.4788 17.4788 17.4788 17.4788 17.4788 17.4788 17.4788 17.4788 17.4788 17.4788 17.4788 17.4788 17.4788 17.4788 17.4788 17.4788 17.4788 17.4788 17.4788 17.4788 17.4788 17.4788 17.4788 17.4788 17.4788 17.4788 17.4788 17.4788 17.4788 17.4788 17.4788 17.4788 17.4788 17.4788 17.4788 17.4788 17.4788 17.4788 17.4788 17.4788 17.4788 17.4788 17.4788 17.4788 17.4788 17.4788 17.4788 17.4788 17.4788 17.4788 17.4788 17.4788 17.4788 17.4788 17.4788 17.4788 17.4788 17.4788 17.4788 17.4788 17.4788 17.4788 17.4788 17.4788 17.4788 17.4788 17.4788 17.4788 17.4788 17.4788 17.4788 17.4788 17.4788 17.4788 17.4788 17.4788 17.4788 17.4788 17.4788 17.4788 17.4788 17.4788 17.4788 17.4788 17.4788 17.4788 17.4788 17.4788 17.4788 17.4788 17.4788 17.4788 17.4788 17.4788 17.4788 17.4788 17.4788 17.4788 17.4788 17.4788 17.4788 17.4788 17.4788 17.4788 17.4788 17.4788 17.4788 17.4788 17.4788 17.4788 17.4788 17.4788 17.4788 17.4788 17.4788 17.4788 17.4788 17.4788 17.4788 17.4788 17.4788 17.4788 17.4788 17.4788 17.4788 17.4788 17.4788 17.4788 17.4788 17.4788 17.4788 17.4788 17.4788 17.4788 17.4788 17.4788 17.4788 17.4788 17.4788 17.4788 17.4788 17.4788 17.4788 17.4788 17.4788 17.4788 17.4788 17.4788 17.4788 17.4788 17.4788 17.4788 17.4788 17.4788 17.4788 17.4788 17.4788 17.4788 17.4788 17.4788 17.4788 17.4788 17.4788 17.4788 17.4788 17.4788 17.4788 17.4788 17.4788 17.4788 17.4788 17.4788 17.4788 17.4788 17.4788 17.4788 17.4788 17.4788 17.4788 17.4788 17.4788 17.4788 17.4788 17.4788 17.4788 17.4788 17.4788 17.4788 17.4788 17.4788 17.4788 17.4788 17.4788 17.4788 17.4788 17.4788 17.4788 17.4788 17.4788 17.4788 17.4788 17.4788 17.4788 17.4788 17.4788 17.4788 17.4788 17.4788 17.4788 17.4788 17.4788 17.4788 17.4788 17.4788 17.4788 17.4788 17.4788 17.4788 17.4788 17.4788 17.4788 17.4788 17.4788 17.4788 17.4788 17.4788 17.4788 17.4788 17.4788 17.4788 17.4788 17.4788 17.4788 17.4788 17.4788 17.4788 17.4788 17.4788 17.4788 17.4788 17.4788 17.4788 17.4788 17.4788 17.4788 17.4788 17.4788 17.4788 17.4788 17.4788 17.4788 17.4788 17.4788 17.4788 17.4788 17.4788 17.4788 17.4788 17.4788 17.4788 17.4788 17.4788 17.4788 17.4788 17.4788 17.4788 17.4788 17.4788 17.4788 17.4788 17.4788 17.4788 17.4788 17.4788 17.4788 17.4788 17.4788 17.4788 17.4788 17.4788 17.4788 17.4788 17.4788 17.4788 17.4788 17.4788 17.4788 17.4788 17.4788 17.4788 17.4788 17.4788 17.4788 17.4788 17.4788 17.4788 17.4788 17.4788 17.4788 17.4788 17.4788 17.4788 17.4788 17.4788 17.4788 17.4788 17.4788 17.4788 17.4788 17.4788 17.4788 17.4788 17.4788 17.4788 17.4788 17.4788 17.4788 17.4788 17.4788 17.4788 17.4788 17.4788 17.4788 17.4788 17.4788 17.4788 17.4788 17.4788 17.4788 17.4788 17.4788 17.4788 17.4788 17.4788 17.4788 17.4788 17.4788 17.4788 17.4788 17.4788 17.4788 17.4788 17.4788 17.4788 17.4788 17.4788 17.4788 17.4788 17.4788 17.4788 17.4788 17.4788 17.4788 17.4788 17.4788 17.4788 17.4788 17.4788 17.4788 17.4788 17.4788 17.4788 17.4788 17.4788 17.4788 17.4788 17.4788 17.4788 17.4788 17.4788 17.4788 17.4788 17.4788 17.4788 17.4788 17.4788 17.4788 17.4788 17.4788 17.4788 17.4788 17.4788 17.4788 17.4788 17.4788 17.4788 17.4788 17.4788 17.4788 17.4788 17.4788 17.4788 17.4788 17.4788 17.4788 17.4788 17.4788 17.4788 17.4788 17.4788 17.4788 17.4788 17.4788 17.4788 17.4788 17.4788 17.4788 17.4788 17.4788 17.4788 17.4788 17.4788 17.4788 17.4788 17.4788 17.4788 17.4788 17.4788 17.4788 17.4788 17.4788 17.4788 17.4788 17.4788 17.4788 17.4788 17.4788 17.4788 17.4788 17.4788 17.4788 17.4788 17.4788 17.4788 17.4788 17.4788 17.4788 17.4788 17.4788 17.4788 17.4788 17.4788 17.4788 17.4788 17.4788 17.4788 17.4788 17.4788 17.4788 17.4788 17.4788 17.4788 17.4788 17.4788 17.4788 17.4788 17.4788 17.4788 17.4788 17.4788 17.4788 17.4788 17.4788 17.4788 17.4788 17.4788 17.4788 17.4788 17.4788 17.4788 17.4788 17.4788 17.4788 17.4788 17.4788 17.4788 17.4788 17.4788 17.4788 17.4788 17.4788 17.4788 17.4788 17.4788 17.4788 17.4788 17.4788 17.4788 17.4788 17.4788 17.4788 17.4788 17.4788 17.4788 17.4788 17.4788 17.4788 17.4788 17.4788 17.4788 17.4788 17.4788 17.4788 17.4788 17.4788 17.4788 17.4788 17.4788 17.4788 17.4788 17.4788 17.4788 17.4788 17.4788 17.4788 17.4788 17.4788 17.4788 17.4788 17.4788 17.4788 17.4788 17.4788 17.4788 17.4788 17.4788 17.4788 17.4788 17.4788 17.4788 17.4788 17.4788 17.4788 17.4788 17.4788 17.4788 17.4788 17.4788 17.4788 17.4788 17.4788 17.4788 17.4788 17.4788 17.4788 17.4788 17.4788 17.4788 17.4788 17.4788 17.4788 17.4788 17.4788 17.4788 17.4788 17.4788 17.4788 17.4788 17.4788 17.4788 17.4788 17.4788 17.4788 17.4788 17.4788 17.4788 17.4788 17.4788 17.4788 17.4788 17.4788 17.4788 17.4788 17.4788 17.4788 17.4788 17.4788 17.4788 17.4788 17.4788 17.4788 17.4788 17.4788 17.4788 17.4788 17.4788 17.4788 17.4788 17.4788 17.4788 17.4788 17.4788 17.4788 17.4788 17.4788 17.4788 17.4788 17.4788 17.4788 17.4788 17.4788 17.4788 17.4788 17.4788 17.4788 17.4788 17.4788 17.4788 17.4788 17.4788 17.4788 17.4788 17.4788 17.4788 17.4788 17.4788 17.4788 17.4788 17.4788 17.4788 17.4788 17.4788 17.4788 17.4788 17.4788 17.4788 17.4788 17.4788 17.4788 17.4788 17.4788 17.4788 17.4788 17.4788 17.4788 17.4788 17.4788 17.4788 17.4788 17.4788 17.4788 17.4788 17.4788 17.4788 17.4788 17.4788 17.4788 17.4788 17.4788 17.4788 17.4788 17.4788 17.4788 17.4788 17.4788 17.4788 17.4788 17.4788 17.4788 17.4788 17.4788 17.4788 17.4788 17.4788 17.4788 17.4788 17.4788 17.4788 17.4788 17.4788 17.4788 17.4788 17.4788 17.4788 17.4788 17.4788 17.4788 17.4788 17.4788 17.4788 17.4788 17.4788 17.4788 17.4788 17.4788 17.4788 17.4788 17.4788 17.4788 17.4788 17.4788 17.4788 17.4788 17.4788 17.4788 17.4788 17.4788 17.4788 17.4788 17.4788 17.4788 17.4788 17.4788 17.4788 17.4788 17.4788 17.4788 17.4788 17.4788 17.4788 17.4788 17.4788 17.4788 17.4788 17.4788 17.4788 17.4788 17.4788 17.4788 17.4788 17.4788 17.4788 17.4788 17.4788 17.4788 17.4788 17.4788 17.4788 17.4788 17.4788 17.4788 17.4788 17.4788 17.4788 17.4788 17.4788 17.4788 17.4788 17.4788 17.4788 17.4788 17.4788 17.4788 17.4788 17.4788 17.4788 17.4788 17.4788 17.4788 17.4788 17.4788 17.4788 17.4788 17.4788 17.4788 17.4788 17.4788 17.4788 17.4788 17.4788 17.4788 17.4788 17.4788 17.4788 17.4788 17.4788 17.4788 17.4788 17.4788 17.4788 17.4788 17.4788 17.4788 17.4788 17.4788 17.4788 17.4788 17.4788 17.4788 17.4788 17.4788 17.4788 17.4788 17.4788 17.4788 17.4788 17.4788 17.4788 17.4788 17.4788 17.4788 17.4788 17.4788 17.4788 17.4788 17.4788 17.4788 17.4788 17.4788 17.4788 17.4788 17.4788 17.4788 17.4788 17.4788 17.4788 17.4788 17.4788 17.4788 17.4788 17.4788 17.4788 17.4788 17.4788 17.4788 17.4788 17.4788 17.4788 17.4788 17.4788 17.4788 17.4788 17.4788 17.4788 17.4788 17.4788 17.4788 17.4788 17.4788 17.4788 17.4788 17.4788 17.4788 17.4788 17.4788 17.4788 17.4788 17.4788 17.4788 17.4788 17.4788 17.4788 17.4788 17.4788 17.4788 17.4788 17.4788 17.4788 17.4788 17.4788 17.4788 17.4788 17.4788 17.4788 17.4788 17.4788 17.4788 17.4788 17.4788 17.4788 17.4788 17.4788 17.4788 17.4788 17.4788 17.4788 17.4788 17.4788 17.4788 17.4788 17.4788 17.4788 17.4788 17.4788 17.4788 17.4788 17.4788 17.4788 17.4788 17.4788 17.4788 17.4788 17.4788 17.4788 17.4788 17.4788 17.4788 17.4788 17.4788 17.4788 17.4788 17.4788 17.4788 17.4788 17.4788 17.4788 17.4788 17.4788 17.4788 17.4788 17.4788 17.4788 17.4788 17.4788 17.4788 17.4788 17.4788 17.4788 17.4788 17.4788 17.4788 17.4788 17.4788 17.4788 17.4788 17.4788 17.4788 17.4788 17.4788 17.4788 17.4788 17.4788 17.4788 17.4788 17.4788 17.4788 17.4788 17.4788 17.4788 17.4788 17.4788 17.4788 17.4788 17.4788 17.4788 17.4788 17.4788 17.4788 17.4788 17.4788 17.4788 17.4788 17.4788 17.4788 17.4788 17.4788 17.4788 17.4788 17.4788 17.4788 17.4788 17.4788 17.4788 17.4788 17.4788 17.4788 17.4788 17.4788 17.4788 17.4788 17.4788 17.4788 17.4788 17.4788 17.4788 17.4788 17.4788 17.4788 17.4788 17.4788 17.4788 17.4788 17.4788 17.4788 17.4788 17.4788 17.4788 17.4788 17.4788 17.4788 17.4788 17.4788 17.4788 17.4788 17.4788 17.4788 17.4788 17.4788 17.4788 17.4788 17.4788 17.4788 17.4788 17.4788 17.4788 17.4788 17.4788 17.4788 17.4788 17.4788 17.4788 17.4788 17.4788 17.4788 17.4788 17.4788 17.4788 17.4788 17.4788 17.4788 17.4788 17.4788 17.4788 17.4788 17.4788 17.4788 17.4788 17.4788 17.4788 17.4788 17.4788 17.4788 17.4788 17.4788 17.4788 17.4788 17.4788 17.4788 17.4788 17.4788 17.4788 17.4788 17.4788 17.4788 17.4788 17.4788 17.4788 17.4788 17.4788 17.4788 17.4788 17.4788 17.4788 17.4788 17.4788 17.4788 17.4788 17.4788 17.4788 17.4788 17.4788 17.4788 17.4788 17.4788 17.4788 17.4788 17.4788 17.4788 17.4788 17.4788 17.4788 17.4788 17.4788 17.4788 17.4788 17.4788 17.4788 17.4788 17.4788 17.4788 17.4788 17.4788 17.4788 17.4788 17.4788 17.4788 17.4788 17.4788 17.4788 17.4788 17.4788 17.4788 17.4788 17.4788 17.4788 17.4788 17.4788 17.4788 17.4788 17.4788 17.4788 17.4788 17.4788 17.4788 17.4788 17.4788 17.4788 17.4788 17.4788 17.4788 17.4788 17.4788 17.4788 17.4788 17.4788 17.4788 17.4788 17.4788 17.4788 17.4788 17.4788 17.4788 17.4788 17.4788 17.4788 17.4788 17.4788 17.4788 17.4788 17.4788 17.4788 17.4788 17.4788 17.4788 17.4788 17.4788 17.4788 17.4788 17.4788 17.4788 17.4788 17.4788 17.4788 17.4788 17.4788 17.4788 17.4788 17.4788 17.4788 17.4788 17.4788 17.4788 17.4788 17.4788 17.4788 17.4788 17.4788 17.4788 17.4788 17.4788 17.4788 17.4788 17.4788 17.4788 17.4788 17.4788 17.4788 17.4788 17.4788 17.4788 17.4788 17.4788 17.4788 17.4788 17.4788 17.4788 17.4788 17.4788 17.4788 17.4788 17.4788 17.4788 17.4788 17.4788 17.4788 17.4788 17.4788 17.4788 17.4788 17.4788 17.4788 17.4788 17.4788 17.4788 17.4788 17.4788 17.4788 17.4788 17.4788 17.4788 17.4788 17.4788 17.4788 17.4788 17.4788 17.4788 17.4788 17.4788 17.4788 17.4788 17.4788 17.4788 17.4788 17.4788 17.4788 17.4788 17.4788 17.4788 17.4788 17.4788 17.4788 17.4788 17.4788 17.4788 17.4788 17.4788 17.4788 17.4788 17.4788 17.4788 17.4788 17.4788 17.4788 17.4788 17.4788 17.4788 17.4788 17.4788 17.4788 17.4788 17.4788 17.4788 17.4788 17.4788 17.4788 17.4788 17.4788 17.4788 17.4788 17.4788 17.4788 17.4788 17.4788 17.4788 17.4788 17.4788 17.4788 17.4788 17.4788 17.4788 17.4788 17.4788 17.4788 17.4788 17.4788 17.4788 17.4788 17.4788 17.4788 17.4788 17.4788 17.4788 17.4788 17.4788 17.4788 17.4788 17.4788 17.4788 17.4788 17.4788 17.4788 17.4788 17.4788 17.4788 17.4788 17.4788 17.4788 17.4788 17.4788 17.4788 17.4788 17.4788 17.4788 17.4788 17.4788 17.4788 17.4788 17.4788 17.4788 17.4788 17.4788 17.4788 17.4788 17.4788 17.4788 17.4788 17.4788 17.4788 17.4788 17.4788 17.4788 17.4788 17.4788 17.4788 17.4788 17.4788 17.4788 17.4788 17.4788 17.4788 17.4788 17.4788 17.4788 17.4788 17.4788 17.4788 17.4788 17.4788 17.4788 17.4788 17.4788 17.4788 17.4788 17.4788 17.4788 17.4788 17.4788 17.4788 17.4788 17.4788 17.4788 17.4788 17.4788 17.4788 17.4788 17.4788 17.4788 17.4788 17.4788 17.4788 17.4788 17.4788 17.4788 17.4788 17.4788 17.4788 17.4788 17.4788 17.4788 17.4788 17.4788 17.4788 17.4788 17.4788 17.4788 17.4788 17.4788 17.4788 17.4788 17.4788 17.4788 17.4788 17.4788 17.4788 17.4788 17.4788 17.4788 17.4788 17.4788 17.4788 17.4788 17.4788 17.4788 17.4788 17.4788 17.4788 17.4788 17.4788 17.4788 17.4788 17.4788 17.4788 17.4788 17.4788 17.4788 17.4788 17.4788 17.4788 17.4788 17.4788 17.4788 17.4788 17.4788 17.4788 17.4788 17.4788 17.4788 17.4788 17.4788 17.4788 17.4788 17.4788 17.4789 17.4789 17.4789 17.4789 17.4789 17.4789 17.4789 17.4789 17.4789 17.4789 17.4789 17.4789 17.4789 17.4789 17.4789 17.4789 17.4789 17.4789 17.4789 17.4789 17.4789 17.4789 17.4789 17.4789 17.4789 17.4789 17.4789 17.4789 17.4789 17.4789 17.4789 17.4789 17.4789 17.4789 17.4789 17.4789 17.4789 17.4789 17.4789 17.4789 17.4789 17.4789 17.4789 17.4789 17.4789 17.4789 17.4789 17.4789 17.4789 17.4789 17.4789 17.4789 17.4789 17.4789 17.4789 17.4789 17.4789 17.4789 17.4789 17.4789 17.4789 17.4789 17.4789 17.4789 17.4789 17.4789 17.4789 17.4789 17.4789 17.4789 17.4789 17.4789 17.4789 17.4789 17.4789 17.4789 17.4789 17.4789 17.4789 17.4789 17.4789 17.4789 17.4789 17.4789 17.4789 17.4789 17.4789 17.4789 17.4789 17.4789 17.4789 17.4789 17.4789 17.4789 17.4789 17.4789 17.4789 17.4789 17.4789 17.4789 17.4789 17.4789 17.4789 17.4789 17.4789 17.4789 17.4789 17.4789 17.4789 17.4789 17.4789 17.4789 17.4789 17.4789 17.4789 17.4789 17.4789 17.4789 17.4789 17.4789 17.4789 17.4789 17.4789 17.4789 17.4789 17.4789 17.4789 17.4789 17.4789 17.4789 17.4789 17.4789 17.4789 17.4789 17.4789 17.4789 17.4789 17.4789 17.4789 17.4789 17.4789 17.4789 17.4789 17.4789 17.4789 17.4789 17.4789 17.4789 17.4789 17.4789 17.4789 17.4789 17.4789 17.4789 17.4789 17.4789 17.4789 17.4789 17.4789 17.4789 17.4789 17.4789 17.4789 17.4789 17.4789 17.4789 17.4789 17.4789 17.4789 17.4789 17.4789 17.4789 17.4789 17.4789 17.4789 17.4789 17.4789 17.4789 17.4789 17.4789 17.4789 17.4789 17.4789 17.4789 17.4789 17.4789 17.4789 17.4789 17.4789 17.4789 17.4789 17.4789 17.4789 17.4789 17.4789 17.4789 17.4789 17.4789 17.4789 17.4789 17.4789 17.4789 17.4789 17.4789 17.4789 17.4789 17.4789 17.4789 17.4789 17.4789 17.4789 17.4789 17.4789 17.4789 17.4789 17.4789 17.4789 17.4789 17.4789 17.4789 17.4789 17.4789 17.4789 17.4789 17.4789 17.4789 17.4789 17.4789 17.4789 17.4789 17.4789 17.4789 17.4789 17.4789 17.4789 17.4789 17.4789 17.4789 17.4789 17.4789 17.4789 17.4789 17.4789 17.4789 17.4789 17.4789 17.4789 17.4789 17.4789 17.4789 17.4789 17.4789 17.4789 17.4789 17.4789 17.4789 17.4789 17.4789 17.4789 17.4789 17.4789 17.4789 17.4789 17.4789 17.4789 17.4789 17.4789 17.4789 17.4789 17.4789 17.4789 17.4789 17.4789 17.4789 17.4789 17.4789 17.4789 17.4789 17.4789 17.4789 17.4789 17.4789 17.4789 17.4789 17.4789 17.4789 17.4789 17.4789 17.4789 17.4789 17.4789 17.4789 17.4789 17.4789 17.4789 17.4789 17.4789 17.4789 17.4789 17.4789 17.4789 17.4789 17.4789 17.4789 17.4789 17.4789 17.4789 17.4789 17.4789 17.4789 17.4789 17.4789 17.4789 17.4789 17.4789 17.4789 17.4789 17.4789 17.4789 17.4789 17.4789 17.4789 17.4789 17.4789 17.4789 17.4789 17.4789 17.4789 17.4789 17.4789 17.4789 17.4789 17.4789 17.4789 17.4789 17.4789 17.4789 17.4789 17.4789 17.4789 17.4789 17.4789 17.4789 17.4789 17.4789 17.4789 17.4789 17.4789 17.4789 17.4789 17.4789 17.4789 17.4789 17.4789 17.4789 17.4789 17.4789 17.4789 17.4789 17.4789 17.4789 17.4789 17.4789 17.4789 17.4789 17.4789 17.4789 17.4789 17.4789 17.4789 17.4789 17.4789 17.4789 17.4789 17.4789 17.4789 17.4789 17.4789 17.4789 17.4789 17.4789 17.4789 17.4789 17.4789 17.4789 17.4789 17.4789 17.4789 17.4789 17.4789 17.4789 17.4789 17.4789 17.4789 17.4789 17.4789 17.4789 17.4789 17.4789 17.4789 17.4789 17.4789 17.4789 17.4789 17.4789 17.4789 17.4789 17.4789 17.4789 17.4789 17.4789 17.4789 17.4789 17.4789 17.4789 17.4789 17.4789 17.4789 17.4789 17.4789 17.4789 17.4789 17.4789 17.4789 17.4789 17.4789 17.4789 17.4789 17.4789 17.4789 17.4789 17.4789 17.4789 17.4789 17.4789 17.4789 17.4789 17.4789 17.4789 17.4789 17.4789 17.4789 17.4789 17.4789 17.4789 17.4789 17.4789 17.4789 17.4789 17.4789 17.4789 17.4789 17.4789 17.4789 17.4789 17.4789 17.4789 17.4789 17.4789 17.4789 17.4789 17.4789 17.4789 17.4789 17.4789 17.4789 17.4789 17.4789 17.4789 17.4789 17.4789 17.4789 17.4789 17.4789 17.4789 17.4789 17.4789 17.4789 17.4789 17.4789 17.4789 17.4789 17.4789 17.4789 17.4789 17.4789 17.4789 17.4789 17.4789 17.4789 17.4789 17.4789 17.4789 17.4789 17.4789 17.4789 17.4789 17.4789 17.4789 17.4789 17.4789 17.4789 17.4789 17.4789 17.4789 17.4789 17.4789 17.4789 17.4789 17.4789 17.4789 17.4789 17.4789 17.4789 17.4789 17.4789 17.4789 17.4789 17.4789 17.4789 17.4789 17.4789 17.4789 17.4789 17.4789 17.4789 17.4789 17.4789 17.4789 17.4789 17.4789 17.4789 17.4789 17.4789 17.4789 17.4789 17.4789 17.4789 17.4789 17.4789 17.4789 17.4789 17.4789 17.4789 17.4789 17.4789 17.4789 17.4789 17.4789 17.4789 17.4789 17.4789 17.4789 17.4789 17.4789 17.4789 17.4789 17.4789 17.4789 17.4789 17.4789 17.4789 17.4789 17.4789 17.4789 17.4789 17.4789 17.4789 17.4789 17.4789 17.4789 17.4789 17.4789 17.4789 17.4789 17.4789 17.4789 17.4789 17.4789 17.4789 17.4789 17.4789 17.4789 17.4789 17.4789 17.4789 17.4789 17.4789 17.4789 17.4789 17.4789 17.4789 17.4789 17.4789 17.4789 17.4789 17.4789 17.4789 17.4789 17.4789 17.4789 17.4789 17.4789 17.4789 17.4789 17.4789 17.4789 17.4789 17.4789 17.4789 17.4789 17.4789 17.4789 17.4789 17.4789 17.4789 17.4789 17.4789 17.4789 17.4789 17.4789 17.4789 17.4789 17.4789 17.4789 17.4789 17.4789 17.4789 17.4789 17.4789 17.4789 17.4789 17.4789 17.4789 17.4789 17.4789 17.4789 17.4789 17.4789 17.4789 17.4789 17.4789 17.4789 17.4789 17.4789 17.4789 17.4789 17.4789 17.4789 17.4789 17.4789 17.4789 17.4789 17.4789 17.4789 17.4789 17.4789 17.4789 17.4789 17.4789 17.4789 17.4789 17.4789 17.4789 17.4789 17.4789 17.4789 17.4789 17.4789 17.4789 17.4789 17.4789 17.4789 17.4789 17.4789 17.4789 17.4789 17.4789 17.4789 17.4789 17.4789 17.4789 17.4789 17.4789 17.4789 17.4789 17.4789 17.4789 17.4789 17.4789 17.4789 17.4789 17.4789 17.4789 17.4789 17.4789 17.4789 17.4789 17.4789 17.4789 17.4789 17.4789 17.4789 17.4789 17.4789 17.4789 17.4789 17.4789 17.4789 17.4789 17.4789 17.4789 17.4789 17.4789 17.4789 17.4789 17.4789 17.4789 17.4789 17.4789 17.4789 17.4789 17.4789 17.4789 17.4789 17.4789 17.4789 17.4789 17.4789 17.4789 17.4789 17.4789 17.4789 17.4789 17.4789 17.4789 17.4789 17.4789 17.4789 17.4789 17.4789 17.4789 17.4789 17.4789 17.4789 17.4789 17.4789 17.4789 17.4789 17.4789 17.4789 17.4789 17.4789 17.4789 17.4789 17.4789 17.4789 17.4789 17.4789 17.4789 17.4789 17.4789 17.4789 17.4789 17.4789 17.4789 17.4789 17.4789 17.4789 17.4789 17.4789 17.4789 17.4789 17.4789 17.4789 17.4789 17.4789 17.4789 17.4789 17.4789 17.4789 17.4789 17.4789 17.4789 17.4789 17.4789 17.4789 17.4789 17.4789 17.4789 17.4789 17.4789 17.4789 17.4789 17.4789 17.4789 17.4789 17.4789 17.4789 17.4789 17.4849 17.4849 17.4849 17.4849 17.4849 17.4849 17.4849 17.4849 17.4849 17.4849 17.4849 17.4849 17.4849 17.4849 17.4849 17.4849 17.4849 17.4849 17.4849 17.4849 17.4849 17.4849 17.4849 17.4849 17.4849 17.4849 17.4849 17.4849 17.4849 17.4849 17.4849 17.4849 17.4849 17.4849 17.4849 17.4849 17.4849 17.4849 17.4849 17.4849 17.4849 17.4849 17.4849 17.4849 17.4849 17.4849 17.4849 17.4849 17.4849 17.4849 17.4849 17.4849 17.4849 17.4849 17.4849 17.4849 17.4849 17.4849 17.4849 17.4849 17.4849 17.4849 17.4849 17.4849 17.4849 17.4849 17.4849 17.4849 17.4849 17.4849 17.4849 17.4849 17.4849 17.4849 17.4849 17.4849 17.4849 17.4849 17.4849 17.4849 17.4849 17.4849 17.4849 17.4849 17.4849 17.4849 17.4849 17.4849 17.4849 17.4849 17.4849 17.4849 17.4849 17.4849 17.4849 17.4849 17.4849 17.4849 17.4849 17.4849 17.4849 17.4849 17.4849 17.4849 17.4849 17.4849 17.4849 17.4849 17.4849 17.4849 17.4849 17.4849 17.4849 17.4849 17.4849 17.4849 17.4849 17.4849 17.4849 17.4849 17.4849 17.4849 17.4849 17.4849 17.4849 17.4849 17.4849 17.4849 17.4849 17.4849 17.4849 17.4849 17.4849 17.4849 17.4849 17.4849 17.4849 17.4849 17.4849 17.4849 17.4849 17.4849 17.4849 17.4849 17.4849 17.4849 17.4849 17.4849 17.4849 17.4849 17.4849 17.4849 17.4849 17.4849 17.4849 17.4849 17.4849 17.4849 17.4849 17.4849 17.4849 17.4849 17.4849 17.4849 17.4849 17.4849 17.4849 17.4849 17.4849 17.4849 17.4849 17.4849 17.4849 17.4849 17.4849 17.4849 17.4849 17.4849 17.4849 17.4849 17.4849 17.4849 17.4849 17.4849 17.4849 17.4849 17.4849 17.4849 17.4849 17.4849 17.4849 17.4849 17.4849 17.4849 17.4849 17.4849 17.4849 17.4849 17.4849 17.4849 17.4849 17.4849 17.4849 17.4849 17.4849 17.4849 17.4849 17.4849 17.4849 17.4849 17.4849 17.4849 17.4849 17.4849 17.4849 17.4849 17.4849 17.4849 17.4849 17.4849 17.4849 17.4849 17.4849 17.4849 17.4849 17.4849 17.4849 17.4849 17.4849 17.4849 17.4849 17.4849 17.4849 17.4849 17.4849 17.4849 17.4849 17.4849 17.4849 17.4849 17.4849 17.4849 17.4849 17.4849 17.4849 17.4849 17.4849 17.4849 17.4849 17.4849 17.4849 17.4849 17.4849 17.4849 17.4849 17.4849 17.4849 17.4849 17.4849 17.4849 17.4849 17.4849 17.4849 17.4849 17.4849 17.4849 17.4849 17.4849 17.4849 17.4849 17.4849 17.4849 17.4849 17.4849 17.4849 17.4849 17.4849 17.4849 17.4849 17.4849 17.4849 17.4849 17.4849 17.4849 17.4849 17.4849 17.4849 17.4849 17.4849 17.4849 17.4849 17.4849 17.4849 17.4849 17.4849 17.4849 17.4849 17.4849 17.4849 17.4849 17.4849 17.4849 17.4849 17.4849 17.4849 17.4849 17.4849 17.4849 17.4849 17.4849 17.4849 17.4849 17.4849 17.4849 17.4849 17.4849 17.4849 17.4849 17.4849 17.4849 17.4849 17.4849 17.4849 17.4849 17.4849 17.4849 17.4849 17.4849 17.4849 17.4849 17.4849 17.4849 17.4849 17.4849 17.4849 17.4849 17.4849 17.4849 17.4849 17.4849 17.4849 17.4849 17.4849 17.4849 17.4849 17.4849 17.4849 17.4849 17.4849 17.4849 17.4849 17.4849 17.4849 17.4849 17.4849 17.4849 17.4849 17.4849 17.4849 17.4849 17.4849 17.4849 17.4849 17.4849 17.4849 17.4849 17.4849 17.4849 17.4849 17.4849 17.4849 17.4849 17.4849 17.4849 17.4849 17.4849 17.4849 17.4849 17.4849 17.4849 17.4849 17.4849 17.4849 17.4849 17.4849 17.4849 17.4849 17.4849 17.4849 17.4849 17.4849 17.4849 17.4849 17.4849 17.4849 17.4849 17.4849 17.4849 17.4849 17.4849 17.4849 17.4849 17.4849 17.4849 17.4849 17.4849 17.4849 17.4849 17.4849 17.4849 17.4849 17.4849 17.4849 17.4849 17.4849 17.4849 17.4849 17.4849 17.4849 17.4849 17.4849 17.4849 17.4849 17.4849 17.4849 17.4849 17.4849 17.4849 17.4849 17.4849 17.4849 17.4849 17.4849 17.4849 17.4849 17.4849 17.4849 17.4849 17.4849 17.4849 17.4849 17.4849 17.4849 17.4849 17.4849 17.4849 17.4849 17.4849 17.4849 17.4849 17.4849 17.4849 17.4849 17.4849 17.4849 17.4849 17.4849 17.4849 17.4849 17.4849 17.4849 17.4849 17.4849 17.4849 17.4849 17.4849 17.4849 17.4849 17.4849 17.4849 17.4849 17.4849 17.4849 17.4849 17.4849 17.4849 17.4849 17.4849 17.4849 17.4849 17.4849 17.4849 17.4849 17.4849 17.4849 17.4849 17.4849 17.4849 17.4849 17.4849 17.4849 17.4849 17.4849 17.4849 17.4849 17.4849 17.4849 17.4849 17.4849 17.4849 17.4849 17.4849 17.4849 17.4849 17.4849 17.4849 17.4849 17.4849 17.4849 17.4849 17.4849 17.4849 17.4849 17.4849 17.4849 17.4849 17.4849 17.4849 17.4849 17.4849 17.4849 17.4849 17.4849 17.4849 17.4849 17.4849 17.4849 17.4849 17.4849 17.4849 17.4849 17.4849 17.4849 17.4849 17.4849 17.4849 17.4849 17.4849 17.4849 17.4849 17.4849 17.4849 17.4849 17.4849 17.4849 17.4849 17.4849 17.4849 17.4849 17.4849 17.4849 17.4849 17.4849 17.4849 17.4849 17.4849 17.4849 17.4849 17.4849 17.4849 17.4849 17.4849 17.4849 17.4849 17.4849 17.4849 17.4849 17.4849 17.4849 17.4849 17.4849 17.4849 17.4849 17.4849 17.4849 17.4849 17.4849 17.4849 17.4849 17.4849 17.4849 17.4849 17.4849 17.4849 17.4849 17.4849 17.4849 17.4849 17.4849 17.4849 17.4849 17.4849 17.4849 17.4849 17.4849 17.4849 17.4849 17.4849 17.4849 17.4849 17.4849 17.4849 17.4849 17.4849 17.4849 17.4849 17.4849 17.4849 17.4849 17.4849 17.4849 17.4849 17.4849 17.4849 17.4849 17.4849 17.4849 17.4849 17.4849 17.4849 17.4849 17.4849 17.4849 17.4849 17.4849 17.4849 17.4849 17.4849 17.4849 17.4849 17.4849 17.4849 17.4849 17.4849 17.4849 17.4849 17.4849 17.4849 17.4849 17.4849 17.4849 17.4849 17.4849 17.4849 17.4849 17.4849 17.4849 17.4849 17.4849 17.4849 17.4849 17.4849 17.4849 17.4849 17.4849 17.4849 17.4849 17.4849 17.4849 17.4849 17.4849 17.4849 17.4849 17.4849 17.4849 17.4849 17.4849 17.4849 17.4849 17.4849 17.4849 17.4849 17.4849 17.4849 17.4849 17.4849 17.4849 17.4849 17.4849 17.4849 17.4849 17.4849 17.4849 17.4849 17.4849 17.4849 17.4849 17.4849 17.4849 17.4849 17.4849 17.4849 17.4849 17.4849 17.4849 17.4849 17.4849 17.4849 17.4849 17.4849 17.4849 17.4849 17.4849 17.4849 17.4849 17.4849 17.4849 17.4849 17.4849 17.4849 17.4849 17.4849 17.4849 17.4849 17.4849 17.4849 17.4849 17.4849 17.4849 17.4849 17.4849 17.4849 17.4849 17.4849 17.4849 17.4849 17.4849 17.4849 17.4849 17.4849 17.4849 17.4849 17.4849 17.4849 17.4849 17.4849 17.4849 17.4849 17.4849 17.4849 17.4849 17.4849 17.4849 17.4849 17.4849 17.4849 17.4849 17.4849 17.4849 17.4849 17.4849 17.4849 17.4849 17.4849 17.4849 17.4849 17.4849 17.4849 17.4849 17.4849 17.4849 17.4849 17.4849 17.4849 17.4849 17.4849 17.4849 17.4849 17.4849 17.4849 17.4849 17.4849 17.4849 17.4849 17.4849 17.4849 17.4849 17.4849 17.4849 17.4849 17.4849 17.4849 17.4849 17.4849 17.4849 17.4849 17.4849 17.4849 17.4849 17.4849 17.4849 17.4849 17.4849 17.4849 17.4849 17.4849 17.4849 17.4849 17.4849 17.4849 17.4918 17.4918 17.4918 17.4918 17.4918 17.4918 17.4918 17.4918 17.4918 17.4918 17.4918 17.4918 17.4918 17.4918 17.4918 17.4918 17.4918 17.4918 17.4918 17.4918 17.4918 17.4918 17.4918 17.4918 17.4918 17.4918 17.4918 17.4918 17.4918 17.4918 17.4918 17.4918 17.4918 17.4918 17.4918 17.4918 17.4918 17.4918 17.4918 17.4918 17.4918 17.4918 17.4918 17.4918 17.4918 17.4918 17.4918 17.4918 17.4918 17.4918 17.4918 17.4918 17.4918 17.4918 17.4918 17.4918 17.4918 17.4918 17.4918 17.4918 17.4918 17.4918 17.4918 17.4918 17.4918 17.4918 17.4918 17.4918 17.4918 17.4918 17.4918 17.4918 17.4918 17.4918 17.4918 17.4918 17.4918 17.4918 17.4918 17.4918 17.4918 17.4918 17.4918 17.4918 17.4918 17.4918 17.4918 17.4918 17.4918 17.4918 17.4918 17.4918 17.4918 17.4918 17.4918 17.4918 17.4918 17.4918 17.4918 17.4918 17.4918 17.4918 17.4918 17.4918 17.4918 17.4918 17.4918 17.4918 17.4918 17.4918 17.4918 17.4918 17.4918 17.